version 2
run General-0-20191226-02:24:22-6688
attr configname General
attr datetime 20191226-02:24:22
attr experiment General
attr inifile omnetpp.ini
attr iterationvars ""
attr iterationvarsf ""
attr measurement ""
attr network SourceSink
attr processid 6688
attr repetition 0
attr replication #0
attr resultdir results
attr runnumber 0
attr seedset 0

vector 0 SourceSink.sink arrivals ETV
attr interpolationmode none
0	4	0.000341333333	1
0	11	0.000682666666	1
0	16	0.001023999999	1
0	19	0.001365333332	1
0	23	0.001706666665	1
0	29	0.002047999998	1
0	32	0.002389333331	1
0	34	0.002730666664	1
0	40	0.003071999997	1
0	42	0.00341333333	1
0	48	0.003754666663	1
0	51	0.004095999996	1
0	54	0.004437333329	1
0	57	0.004778666662	1
0	64	0.005119999995	1
0	66	0.005461333328	1
0	69	0.005802666661	1
0	71	0.006143999994	1
0	75	0.006485333327	1
0	80	0.00682666666	1
0	83	0.007167999993	1
0	89	0.007509333326	1

